t 14722222222 /NodeList/0/DeviceList/0/$ns3::AquaSimNetDevice/Phy/Tx ns3::AquaSimPacketStamp (PacketStamp: Pt(0.2818) Pr(0) TxRange(40) Freq(25) Noise(0) PacketStatus(INVALID)
) ns3::AquaSimHeader (Packet header is  TxTime=+273000000.0ns Size=320 Direction=DOWN NumForwards=1 Error=False UniqueID=0 Timestamp=+0.0ns SenderAddr=01 DestAddr=05 NextHop=0255
) ns3::MacHeader (Mac Header is: SA=01 DA=0255 DemuxPType=OTHER
) ns3::AquaSimHeader (Packet header is  TxTime=+0.0ns Size=320 Direction=DOWN NumForwards=0 Error=False UniqueID=0 Timestamp=+0.0ns SenderAddr=01 DestAddr=05 NextHop=0255
) Payload (size=320)
r 15247555555 /NodeList/1/DeviceList/0/$ns3::AquaSimNetDevice/Phy/Rx ns3::AquaSimHeader (Packet header is  TxTime=+10000000.0ns Size=320 Direction=UP NumForwards=1 Error=False UniqueID=0 Timestamp=+0.0ns SenderAddr=01 DestAddr=05 NextHop=0255
) ns3::MacHeader (Mac Header is: SA=01 DA=0255 DemuxPType=OTHER
) ns3::AquaSimHeader (Packet header is  TxTime=+0.0ns Size=320 Direction=DOWN NumForwards=0 Error=False UniqueID=0 Timestamp=+0.0ns SenderAddr=01 DestAddr=05 NextHop=0255
) Payload (size=320)
t 15247555555 /NodeList/1/DeviceList/0/$ns3::AquaSimNetDevice/Phy/Tx ns3::AquaSimPacketStamp (PacketStamp: Pt(0.2818) Pr(0) TxRange(40) Freq(25) Noise(0) PacketStatus(INVALID)
) ns3::AquaSimHeader (Packet header is  TxTime=+288999999.0ns Size=320 Direction=DOWN NumForwards=2 Error=False UniqueID=0 Timestamp=+0.0ns SenderAddr=02 DestAddr=05 NextHop=0255
) ns3::MacHeader (Mac Header is: SA=02 DA=0255 DemuxPType=OTHER
) ns3::AquaSimHeader (Packet header is  TxTime=+10000000.0ns Size=320 Direction=UP NumForwards=1 Error=False UniqueID=0 Timestamp=+0.0ns SenderAddr=01 DestAddr=05 NextHop=0255
) ns3::AquaSimHeader (Packet header is  TxTime=+0.0ns Size=320 Direction=DOWN NumForwards=0 Error=False UniqueID=0 Timestamp=+0.0ns SenderAddr=01 DestAddr=05 NextHop=0255
) Payload (size=320)
r 15260888888 /NodeList/2/DeviceList/0/$ns3::AquaSimNetDevice/Phy/Rx ns3::AquaSimHeader (Packet header is  TxTime=+10000000.0ns Size=320 Direction=UP NumForwards=1 Error=False UniqueID=0 Timestamp=+0.0ns SenderAddr=01 DestAddr=05 NextHop=0255
) ns3::MacHeader (Mac Header is: SA=01 DA=0255 DemuxPType=OTHER
) ns3::AquaSimHeader (Packet header is  TxTime=+0.0ns Size=320 Direction=DOWN NumForwards=0 Error=False UniqueID=0 Timestamp=+0.0ns SenderAddr=01 DestAddr=05 NextHop=0255
) Payload (size=320)
r 15772888888 /NodeList/0/DeviceList/0/$ns3::AquaSimNetDevice/Phy/Rx ns3::AquaSimHeader (Packet header is  TxTime=+10000000.0ns Size=320 Direction=UP NumForwards=2 Error=False UniqueID=0 Timestamp=+0.0ns SenderAddr=02 DestAddr=05 NextHop=0255
) ns3::MacHeader (Mac Header is: SA=02 DA=0255 DemuxPType=OTHER
) ns3::AquaSimHeader (Packet header is  TxTime=+10000000.0ns Size=320 Direction=UP NumForwards=1 Error=False UniqueID=0 Timestamp=+0.0ns SenderAddr=01 DestAddr=05 NextHop=0255
) ns3::AquaSimHeader (Packet header is  TxTime=+0.0ns Size=320 Direction=DOWN NumForwards=0 Error=False UniqueID=0 Timestamp=+0.0ns SenderAddr=01 DestAddr=05 NextHop=0255
) Payload (size=320)
r 15772888888 /NodeList/2/DeviceList/0/$ns3::AquaSimNetDevice/Phy/Rx ns3::AquaSimHeader (Packet header is  TxTime=+10000000.0ns Size=320 Direction=UP NumForwards=2 Error=False UniqueID=0 Timestamp=+0.0ns SenderAddr=02 DestAddr=05 NextHop=0255
) ns3::MacHeader (Mac Header is: SA=02 DA=0255 DemuxPType=OTHER
) ns3::AquaSimHeader (Packet header is  TxTime=+10000000.0ns Size=320 Direction=UP NumForwards=1 Error=False UniqueID=0 Timestamp=+0.0ns SenderAddr=01 DestAddr=05 NextHop=0255
) ns3::AquaSimHeader (Packet header is  TxTime=+0.0ns Size=320 Direction=DOWN NumForwards=0 Error=False UniqueID=0 Timestamp=+0.0ns SenderAddr=01 DestAddr=05 NextHop=0255
) Payload (size=320)
t 15772888888 /NodeList/2/DeviceList/0/$ns3::AquaSimNetDevice/Phy/Tx ns3::AquaSimPacketStamp (PacketStamp: Pt(0.2818) Pr(0) TxRange(40) Freq(25) Noise(0) PacketStatus(INVALID)
) ns3::AquaSimHeader (Packet header is  TxTime=+305999999.0ns Size=320 Direction=DOWN NumForwards=3 Error=False UniqueID=0 Timestamp=+0.0ns SenderAddr=03 DestAddr=05 NextHop=0255
) ns3::MacHeader (Mac Header is: SA=03 DA=0255 DemuxPType=OTHER
) ns3::AquaSimHeader (Packet header is  TxTime=+10000000.0ns Size=320 Direction=UP NumForwards=2 Error=False UniqueID=0 Timestamp=+0.0ns SenderAddr=02 DestAddr=05 NextHop=0255
) ns3::AquaSimHeader (Packet header is  TxTime=+10000000.0ns Size=320 Direction=UP NumForwards=1 Error=False UniqueID=0 Timestamp=+0.0ns SenderAddr=01 DestAddr=05 NextHop=0255
) ns3::AquaSimHeader (Packet header is  TxTime=+0.0ns Size=320 Direction=DOWN NumForwards=0 Error=False UniqueID=0 Timestamp=+0.0ns SenderAddr=01 DestAddr=05 NextHop=0255
) Payload (size=320)
r 15786222221 /NodeList/3/DeviceList/0/$ns3::AquaSimNetDevice/Phy/Rx ns3::AquaSimHeader (Packet header is  TxTime=+10000000.0ns Size=320 Direction=UP NumForwards=2 Error=False UniqueID=0 Timestamp=+0.0ns SenderAddr=02 DestAddr=05 NextHop=0255
) ns3::MacHeader (Mac Header is: SA=02 DA=0255 DemuxPType=OTHER
) ns3::AquaSimHeader (Packet header is  TxTime=+10000000.0ns Size=320 Direction=UP NumForwards=1 Error=False UniqueID=0 Timestamp=+0.0ns SenderAddr=01 DestAddr=05 NextHop=0255
) ns3::AquaSimHeader (Packet header is  TxTime=+0.0ns Size=320 Direction=DOWN NumForwards=0 Error=False UniqueID=0 Timestamp=+0.0ns SenderAddr=01 DestAddr=05 NextHop=0255
) Payload (size=320)
r 16298222221 /NodeList/1/DeviceList/0/$ns3::AquaSimNetDevice/Phy/Rx ns3::AquaSimHeader (Packet header is  TxTime=+10000000.0ns Size=320 Direction=UP NumForwards=3 Error=False UniqueID=0 Timestamp=+0.0ns SenderAddr=03 DestAddr=05 NextHop=0255
) ns3::MacHeader (Mac Header is: SA=03 DA=0255 DemuxPType=OTHER
) ns3::AquaSimHeader (Packet header is  TxTime=+10000000.0ns Size=320 Direction=UP NumForwards=2 Error=False UniqueID=0 Timestamp=+0.0ns SenderAddr=02 DestAddr=05 NextHop=0255
) ns3::AquaSimHeader (Packet header is  TxTime=+10000000.0ns Size=320 Direction=UP NumForwards=1 Error=False UniqueID=0 Timestamp=+0.0ns SenderAddr=01 DestAddr=05 NextHop=0255
) ns3::AquaSimHeader (Packet header is  TxTime=+0.0ns Size=320 Direction=DOWN NumForwards=0 Error=False UniqueID=0 Timestamp=+0.0ns SenderAddr=01 DestAddr=05 NextHop=0255
) Payload (size=320)
r 16298222221 /NodeList/3/DeviceList/0/$ns3::AquaSimNetDevice/Phy/Rx ns3::AquaSimHeader (Packet header is  TxTime=+10000000.0ns Size=320 Direction=UP NumForwards=3 Error=False UniqueID=0 Timestamp=+0.0ns SenderAddr=03 DestAddr=05 NextHop=0255
) ns3::MacHeader (Mac Header is: SA=03 DA=0255 DemuxPType=OTHER
) ns3::AquaSimHeader (Packet header is  TxTime=+10000000.0ns Size=320 Direction=UP NumForwards=2 Error=False UniqueID=0 Timestamp=+0.0ns SenderAddr=02 DestAddr=05 NextHop=0255
) ns3::AquaSimHeader (Packet header is  TxTime=+10000000.0ns Size=320 Direction=UP NumForwards=1 Error=False UniqueID=0 Timestamp=+0.0ns SenderAddr=01 DestAddr=05 NextHop=0255
) ns3::AquaSimHeader (Packet header is  TxTime=+0.0ns Size=320 Direction=DOWN NumForwards=0 Error=False UniqueID=0 Timestamp=+0.0ns SenderAddr=01 DestAddr=05 NextHop=0255
) Payload (size=320)
t 16298222221 /NodeList/3/DeviceList/0/$ns3::AquaSimNetDevice/Phy/Tx ns3::AquaSimPacketStamp (PacketStamp: Pt(0.2818) Pr(0) TxRange(40) Freq(25) Noise(0) PacketStatus(INVALID)
) ns3::AquaSimHeader (Packet header is  TxTime=+326000000.0ns Size=320 Direction=DOWN NumForwards=4 Error=False UniqueID=0 Timestamp=+0.0ns SenderAddr=04 DestAddr=05 NextHop=0255
) ns3::MacHeader (Mac Header is: SA=04 DA=0255 DemuxPType=OTHER
) ns3::AquaSimHeader (Packet header is  TxTime=+10000000.0ns Size=320 Direction=UP NumForwards=3 Error=False UniqueID=0 Timestamp=+0.0ns SenderAddr=03 DestAddr=05 NextHop=0255
) ns3::AquaSimHeader (Packet header is  TxTime=+10000000.0ns Size=320 Direction=UP NumForwards=2 Error=False UniqueID=0 Timestamp=+0.0ns SenderAddr=02 DestAddr=05 NextHop=0255
) ns3::AquaSimHeader (Packet header is  TxTime=+10000000.0ns Size=320 Direction=UP NumForwards=1 Error=False UniqueID=0 Timestamp=+0.0ns SenderAddr=01 DestAddr=05 NextHop=0255
) ns3::AquaSimHeader (Packet header is  TxTime=+0.0ns Size=320 Direction=DOWN NumForwards=0 Error=False UniqueID=0 Timestamp=+0.0ns SenderAddr=01 DestAddr=05 NextHop=0255
) Payload (size=320)
r 16311555554 /NodeList/0/DeviceList/0/$ns3::AquaSimNetDevice/Phy/Rx ns3::AquaSimHeader (Packet header is  TxTime=+10000000.0ns Size=320 Direction=UP NumForwards=3 Error=False UniqueID=0 Timestamp=+0.0ns SenderAddr=03 DestAddr=05 NextHop=0255
) ns3::MacHeader (Mac Header is: SA=03 DA=0255 DemuxPType=OTHER
) ns3::AquaSimHeader (Packet header is  TxTime=+10000000.0ns Size=320 Direction=UP NumForwards=2 Error=False UniqueID=0 Timestamp=+0.0ns SenderAddr=02 DestAddr=05 NextHop=0255
) ns3::AquaSimHeader (Packet header is  TxTime=+10000000.0ns Size=320 Direction=UP NumForwards=1 Error=False UniqueID=0 Timestamp=+0.0ns SenderAddr=01 DestAddr=05 NextHop=0255
) ns3::AquaSimHeader (Packet header is  TxTime=+0.0ns Size=320 Direction=DOWN NumForwards=0 Error=False UniqueID=0 Timestamp=+0.0ns SenderAddr=01 DestAddr=05 NextHop=0255
) Payload (size=320)
r 16311555554 /NodeList/4/DeviceList/0/$ns3::AquaSimNetDevice/Phy/Rx ns3::AquaSimHeader (Packet header is  TxTime=+10000000.0ns Size=320 Direction=UP NumForwards=3 Error=False UniqueID=0 Timestamp=+0.0ns SenderAddr=03 DestAddr=05 NextHop=0255
) ns3::MacHeader (Mac Header is: SA=03 DA=0255 DemuxPType=OTHER
) ns3::AquaSimHeader (Packet header is  TxTime=+10000000.0ns Size=320 Direction=UP NumForwards=2 Error=False UniqueID=0 Timestamp=+0.0ns SenderAddr=02 DestAddr=05 NextHop=0255
) ns3::AquaSimHeader (Packet header is  TxTime=+10000000.0ns Size=320 Direction=UP NumForwards=1 Error=False UniqueID=0 Timestamp=+0.0ns SenderAddr=01 DestAddr=05 NextHop=0255
) ns3::AquaSimHeader (Packet header is  TxTime=+0.0ns Size=320 Direction=DOWN NumForwards=0 Error=False UniqueID=0 Timestamp=+0.0ns SenderAddr=01 DestAddr=05 NextHop=0255
) Payload (size=320)
t 16311555554 /NodeList/0/DeviceList/0/$ns3::AquaSimNetDevice/Phy/Tx ns3::AquaSimPacketStamp (PacketStamp: Pt(0.2818) Pr(0) TxRange(40) Freq(25) Noise(0) PacketStatus(INVALID)
) ns3::AquaSimHeader (Packet header is  TxTime=+326000000.0ns Size=320 Direction=DOWN NumForwards=4 Error=False UniqueID=0 Timestamp=+0.0ns SenderAddr=01 DestAddr=05 NextHop=0255
) ns3::MacHeader (Mac Header is: SA=01 DA=0255 DemuxPType=OTHER
) ns3::AquaSimHeader (Packet header is  TxTime=+10000000.0ns Size=320 Direction=UP NumForwards=3 Error=False UniqueID=0 Timestamp=+0.0ns SenderAddr=03 DestAddr=05 NextHop=0255
) ns3::AquaSimHeader (Packet header is  TxTime=+10000000.0ns Size=320 Direction=UP NumForwards=2 Error=False UniqueID=0 Timestamp=+0.0ns SenderAddr=02 DestAddr=05 NextHop=0255
) ns3::AquaSimHeader (Packet header is  TxTime=+10000000.0ns Size=320 Direction=UP NumForwards=1 Error=False UniqueID=0 Timestamp=+0.0ns SenderAddr=01 DestAddr=05 NextHop=0255
) ns3::AquaSimHeader (Packet header is  TxTime=+0.0ns Size=320 Direction=DOWN NumForwards=0 Error=False UniqueID=0 Timestamp=+0.0ns SenderAddr=01 DestAddr=05 NextHop=0255
) Payload (size=320)
r 16823555554 /NodeList/4/DeviceList/0/$ns3::AquaSimNetDevice/Phy/Rx ns3::AquaSimHeader (Packet header is  TxTime=+10000000.0ns Size=320 Direction=UP NumForwards=4 Error=False UniqueID=0 Timestamp=+0.0ns SenderAddr=04 DestAddr=05 NextHop=0255
) ns3::MacHeader (Mac Header is: SA=04 DA=0255 DemuxPType=OTHER
) ns3::AquaSimHeader (Packet header is  TxTime=+10000000.0ns Size=320 Direction=UP NumForwards=3 Error=False UniqueID=0 Timestamp=+0.0ns SenderAddr=03 DestAddr=05 NextHop=0255
) ns3::AquaSimHeader (Packet header is  TxTime=+10000000.0ns Size=320 Direction=UP NumForwards=2 Error=False UniqueID=0 Timestamp=+0.0ns SenderAddr=02 DestAddr=05 NextHop=0255
) ns3::AquaSimHeader (Packet header is  TxTime=+10000000.0ns Size=320 Direction=UP NumForwards=1 Error=False UniqueID=0 Timestamp=+0.0ns SenderAddr=01 DestAddr=05 NextHop=0255
) ns3::AquaSimHeader (Packet header is  TxTime=+0.0ns Size=320 Direction=DOWN NumForwards=0 Error=False UniqueID=0 Timestamp=+0.0ns SenderAddr=01 DestAddr=05 NextHop=0255
) Payload (size=320)
t 28944444444 /NodeList/0/DeviceList/0/$ns3::AquaSimNetDevice/Phy/Tx ns3::AquaSimPacketStamp (PacketStamp: Pt(0.2818) Pr(0) TxRange(40) Freq(25) Noise(0) PacketStatus(INVALID)
) ns3::AquaSimHeader (Packet header is  TxTime=+273000000.0ns Size=320 Direction=DOWN NumForwards=1 Error=False UniqueID=2 Timestamp=+0.0ns SenderAddr=01 DestAddr=05 NextHop=0255
) ns3::MacHeader (Mac Header is: SA=01 DA=0255 DemuxPType=OTHER
) ns3::AquaSimHeader (Packet header is  TxTime=+0.0ns Size=320 Direction=DOWN NumForwards=0 Error=False UniqueID=2 Timestamp=+0.0ns SenderAddr=01 DestAddr=05 NextHop=0255
) Payload (size=320)
r 29469777777 /NodeList/1/DeviceList/0/$ns3::AquaSimNetDevice/Phy/Rx ns3::AquaSimHeader (Packet header is  TxTime=+10000000.0ns Size=320 Direction=UP NumForwards=1 Error=False UniqueID=2 Timestamp=+0.0ns SenderAddr=01 DestAddr=05 NextHop=0255
) ns3::MacHeader (Mac Header is: SA=01 DA=0255 DemuxPType=OTHER
) ns3::AquaSimHeader (Packet header is  TxTime=+0.0ns Size=320 Direction=DOWN NumForwards=0 Error=False UniqueID=2 Timestamp=+0.0ns SenderAddr=01 DestAddr=05 NextHop=0255
) Payload (size=320)
t 29469777777 /NodeList/1/DeviceList/0/$ns3::AquaSimNetDevice/Phy/Tx ns3::AquaSimPacketStamp (PacketStamp: Pt(0.2818) Pr(0) TxRange(40) Freq(25) Noise(0) PacketStatus(INVALID)
) ns3::AquaSimHeader (Packet header is  TxTime=+288999999.0ns Size=320 Direction=DOWN NumForwards=2 Error=False UniqueID=2 Timestamp=+0.0ns SenderAddr=02 DestAddr=05 NextHop=0255
) ns3::MacHeader (Mac Header is: SA=02 DA=0255 DemuxPType=OTHER
) ns3::AquaSimHeader (Packet header is  TxTime=+10000000.0ns Size=320 Direction=UP NumForwards=1 Error=False UniqueID=2 Timestamp=+0.0ns SenderAddr=01 DestAddr=05 NextHop=0255
) ns3::AquaSimHeader (Packet header is  TxTime=+0.0ns Size=320 Direction=DOWN NumForwards=0 Error=False UniqueID=2 Timestamp=+0.0ns SenderAddr=01 DestAddr=05 NextHop=0255
) Payload (size=320)
r 29483111110 /NodeList/2/DeviceList/0/$ns3::AquaSimNetDevice/Phy/Rx ns3::AquaSimHeader (Packet header is  TxTime=+10000000.0ns Size=320 Direction=UP NumForwards=1 Error=False UniqueID=2 Timestamp=+0.0ns SenderAddr=01 DestAddr=05 NextHop=0255
) ns3::MacHeader (Mac Header is: SA=01 DA=0255 DemuxPType=OTHER
) ns3::AquaSimHeader (Packet header is  TxTime=+0.0ns Size=320 Direction=DOWN NumForwards=0 Error=False UniqueID=2 Timestamp=+0.0ns SenderAddr=01 DestAddr=05 NextHop=0255
) Payload (size=320)
r 29995111110 /NodeList/0/DeviceList/0/$ns3::AquaSimNetDevice/Phy/Rx ns3::AquaSimHeader (Packet header is  TxTime=+10000000.0ns Size=320 Direction=UP NumForwards=2 Error=False UniqueID=2 Timestamp=+0.0ns SenderAddr=02 DestAddr=05 NextHop=0255
) ns3::MacHeader (Mac Header is: SA=02 DA=0255 DemuxPType=OTHER
) ns3::AquaSimHeader (Packet header is  TxTime=+10000000.0ns Size=320 Direction=UP NumForwards=1 Error=False UniqueID=2 Timestamp=+0.0ns SenderAddr=01 DestAddr=05 NextHop=0255
) ns3::AquaSimHeader (Packet header is  TxTime=+0.0ns Size=320 Direction=DOWN NumForwards=0 Error=False UniqueID=2 Timestamp=+0.0ns SenderAddr=01 DestAddr=05 NextHop=0255
) Payload (size=320)
r 29995111110 /NodeList/2/DeviceList/0/$ns3::AquaSimNetDevice/Phy/Rx ns3::AquaSimHeader (Packet header is  TxTime=+10000000.0ns Size=320 Direction=UP NumForwards=2 Error=False UniqueID=2 Timestamp=+0.0ns SenderAddr=02 DestAddr=05 NextHop=0255
) ns3::MacHeader (Mac Header is: SA=02 DA=0255 DemuxPType=OTHER
) ns3::AquaSimHeader (Packet header is  TxTime=+10000000.0ns Size=320 Direction=UP NumForwards=1 Error=False UniqueID=2 Timestamp=+0.0ns SenderAddr=01 DestAddr=05 NextHop=0255
) ns3::AquaSimHeader (Packet header is  TxTime=+0.0ns Size=320 Direction=DOWN NumForwards=0 Error=False UniqueID=2 Timestamp=+0.0ns SenderAddr=01 DestAddr=05 NextHop=0255
) Payload (size=320)
t 29995111110 /NodeList/2/DeviceList/0/$ns3::AquaSimNetDevice/Phy/Tx ns3::AquaSimPacketStamp (PacketStamp: Pt(0.2818) Pr(0) TxRange(40) Freq(25) Noise(0) PacketStatus(INVALID)
) ns3::AquaSimHeader (Packet header is  TxTime=+305999999.0ns Size=320 Direction=DOWN NumForwards=3 Error=False UniqueID=2 Timestamp=+0.0ns SenderAddr=03 DestAddr=05 NextHop=0255
) ns3::MacHeader (Mac Header is: SA=03 DA=0255 DemuxPType=OTHER
) ns3::AquaSimHeader (Packet header is  TxTime=+10000000.0ns Size=320 Direction=UP NumForwards=2 Error=False UniqueID=2 Timestamp=+0.0ns SenderAddr=02 DestAddr=05 NextHop=0255
) ns3::AquaSimHeader (Packet header is  TxTime=+10000000.0ns Size=320 Direction=UP NumForwards=1 Error=False UniqueID=2 Timestamp=+0.0ns SenderAddr=01 DestAddr=05 NextHop=0255
) ns3::AquaSimHeader (Packet header is  TxTime=+0.0ns Size=320 Direction=DOWN NumForwards=0 Error=False UniqueID=2 Timestamp=+0.0ns SenderAddr=01 DestAddr=05 NextHop=0255
) Payload (size=320)
r 30008444443 /NodeList/3/DeviceList/0/$ns3::AquaSimNetDevice/Phy/Rx ns3::AquaSimHeader (Packet header is  TxTime=+10000000.0ns Size=320 Direction=UP NumForwards=2 Error=False UniqueID=2 Timestamp=+0.0ns SenderAddr=02 DestAddr=05 NextHop=0255
) ns3::MacHeader (Mac Header is: SA=02 DA=0255 DemuxPType=OTHER
) ns3::AquaSimHeader (Packet header is  TxTime=+10000000.0ns Size=320 Direction=UP NumForwards=1 Error=False UniqueID=2 Timestamp=+0.0ns SenderAddr=01 DestAddr=05 NextHop=0255
) ns3::AquaSimHeader (Packet header is  TxTime=+0.0ns Size=320 Direction=DOWN NumForwards=0 Error=False UniqueID=2 Timestamp=+0.0ns SenderAddr=01 DestAddr=05 NextHop=0255
) Payload (size=320)
r 30520444443 /NodeList/1/DeviceList/0/$ns3::AquaSimNetDevice/Phy/Rx ns3::AquaSimHeader (Packet header is  TxTime=+10000000.0ns Size=320 Direction=UP NumForwards=3 Error=False UniqueID=2 Timestamp=+0.0ns SenderAddr=03 DestAddr=05 NextHop=0255
) ns3::MacHeader (Mac Header is: SA=03 DA=0255 DemuxPType=OTHER
) ns3::AquaSimHeader (Packet header is  TxTime=+10000000.0ns Size=320 Direction=UP NumForwards=2 Error=False UniqueID=2 Timestamp=+0.0ns SenderAddr=02 DestAddr=05 NextHop=0255
) ns3::AquaSimHeader (Packet header is  TxTime=+10000000.0ns Size=320 Direction=UP NumForwards=1 Error=False UniqueID=2 Timestamp=+0.0ns SenderAddr=01 DestAddr=05 NextHop=0255
) ns3::AquaSimHeader (Packet header is  TxTime=+0.0ns Size=320 Direction=DOWN NumForwards=0 Error=False UniqueID=2 Timestamp=+0.0ns SenderAddr=01 DestAddr=05 NextHop=0255
) Payload (size=320)
r 30520444443 /NodeList/3/DeviceList/0/$ns3::AquaSimNetDevice/Phy/Rx ns3::AquaSimHeader (Packet header is  TxTime=+10000000.0ns Size=320 Direction=UP NumForwards=3 Error=False UniqueID=2 Timestamp=+0.0ns SenderAddr=03 DestAddr=05 NextHop=0255
) ns3::MacHeader (Mac Header is: SA=03 DA=0255 DemuxPType=OTHER
) ns3::AquaSimHeader (Packet header is  TxTime=+10000000.0ns Size=320 Direction=UP NumForwards=2 Error=False UniqueID=2 Timestamp=+0.0ns SenderAddr=02 DestAddr=05 NextHop=0255
) ns3::AquaSimHeader (Packet header is  TxTime=+10000000.0ns Size=320 Direction=UP NumForwards=1 Error=False UniqueID=2 Timestamp=+0.0ns SenderAddr=01 DestAddr=05 NextHop=0255
) ns3::AquaSimHeader (Packet header is  TxTime=+0.0ns Size=320 Direction=DOWN NumForwards=0 Error=False UniqueID=2 Timestamp=+0.0ns SenderAddr=01 DestAddr=05 NextHop=0255
) Payload (size=320)
t 30520444443 /NodeList/3/DeviceList/0/$ns3::AquaSimNetDevice/Phy/Tx ns3::AquaSimPacketStamp (PacketStamp: Pt(0.2818) Pr(0) TxRange(40) Freq(25) Noise(0) PacketStatus(INVALID)
) ns3::AquaSimHeader (Packet header is  TxTime=+326000000.0ns Size=320 Direction=DOWN NumForwards=4 Error=False UniqueID=2 Timestamp=+0.0ns SenderAddr=04 DestAddr=05 NextHop=0255
) ns3::MacHeader (Mac Header is: SA=04 DA=0255 DemuxPType=OTHER
) ns3::AquaSimHeader (Packet header is  TxTime=+10000000.0ns Size=320 Direction=UP NumForwards=3 Error=False UniqueID=2 Timestamp=+0.0ns SenderAddr=03 DestAddr=05 NextHop=0255
) ns3::AquaSimHeader (Packet header is  TxTime=+10000000.0ns Size=320 Direction=UP NumForwards=2 Error=False UniqueID=2 Timestamp=+0.0ns SenderAddr=02 DestAddr=05 NextHop=0255
) ns3::AquaSimHeader (Packet header is  TxTime=+10000000.0ns Size=320 Direction=UP NumForwards=1 Error=False UniqueID=2 Timestamp=+0.0ns SenderAddr=01 DestAddr=05 NextHop=0255
) ns3::AquaSimHeader (Packet header is  TxTime=+0.0ns Size=320 Direction=DOWN NumForwards=0 Error=False UniqueID=2 Timestamp=+0.0ns SenderAddr=01 DestAddr=05 NextHop=0255
) Payload (size=320)
r 30533777776 /NodeList/0/DeviceList/0/$ns3::AquaSimNetDevice/Phy/Rx ns3::AquaSimHeader (Packet header is  TxTime=+10000000.0ns Size=320 Direction=UP NumForwards=3 Error=False UniqueID=2 Timestamp=+0.0ns SenderAddr=03 DestAddr=05 NextHop=0255
) ns3::MacHeader (Mac Header is: SA=03 DA=0255 DemuxPType=OTHER
) ns3::AquaSimHeader (Packet header is  TxTime=+10000000.0ns Size=320 Direction=UP NumForwards=2 Error=False UniqueID=2 Timestamp=+0.0ns SenderAddr=02 DestAddr=05 NextHop=0255
) ns3::AquaSimHeader (Packet header is  TxTime=+10000000.0ns Size=320 Direction=UP NumForwards=1 Error=False UniqueID=2 Timestamp=+0.0ns SenderAddr=01 DestAddr=05 NextHop=0255
) ns3::AquaSimHeader (Packet header is  TxTime=+0.0ns Size=320 Direction=DOWN NumForwards=0 Error=False UniqueID=2 Timestamp=+0.0ns SenderAddr=01 DestAddr=05 NextHop=0255
) Payload (size=320)
r 30533777776 /NodeList/4/DeviceList/0/$ns3::AquaSimNetDevice/Phy/Rx ns3::AquaSimHeader (Packet header is  TxTime=+10000000.0ns Size=320 Direction=UP NumForwards=3 Error=False UniqueID=2 Timestamp=+0.0ns SenderAddr=03 DestAddr=05 NextHop=0255
) ns3::MacHeader (Mac Header is: SA=03 DA=0255 DemuxPType=OTHER
) ns3::AquaSimHeader (Packet header is  TxTime=+10000000.0ns Size=320 Direction=UP NumForwards=2 Error=False UniqueID=2 Timestamp=+0.0ns SenderAddr=02 DestAddr=05 NextHop=0255
) ns3::AquaSimHeader (Packet header is  TxTime=+10000000.0ns Size=320 Direction=UP NumForwards=1 Error=False UniqueID=2 Timestamp=+0.0ns SenderAddr=01 DestAddr=05 NextHop=0255
) ns3::AquaSimHeader (Packet header is  TxTime=+0.0ns Size=320 Direction=DOWN NumForwards=0 Error=False UniqueID=2 Timestamp=+0.0ns SenderAddr=01 DestAddr=05 NextHop=0255
) Payload (size=320)
t 30533777776 /NodeList/0/DeviceList/0/$ns3::AquaSimNetDevice/Phy/Tx ns3::AquaSimPacketStamp (PacketStamp: Pt(0.2818) Pr(0) TxRange(40) Freq(25) Noise(0) PacketStatus(INVALID)
) ns3::AquaSimHeader (Packet header is  TxTime=+326000000.0ns Size=320 Direction=DOWN NumForwards=4 Error=False UniqueID=2 Timestamp=+0.0ns SenderAddr=01 DestAddr=05 NextHop=0255
) ns3::MacHeader (Mac Header is: SA=01 DA=0255 DemuxPType=OTHER
) ns3::AquaSimHeader (Packet header is  TxTime=+10000000.0ns Size=320 Direction=UP NumForwards=3 Error=False UniqueID=2 Timestamp=+0.0ns SenderAddr=03 DestAddr=05 NextHop=0255
) ns3::AquaSimHeader (Packet header is  TxTime=+10000000.0ns Size=320 Direction=UP NumForwards=2 Error=False UniqueID=2 Timestamp=+0.0ns SenderAddr=02 DestAddr=05 NextHop=0255
) ns3::AquaSimHeader (Packet header is  TxTime=+10000000.0ns Size=320 Direction=UP NumForwards=1 Error=False UniqueID=2 Timestamp=+0.0ns SenderAddr=01 DestAddr=05 NextHop=0255
) ns3::AquaSimHeader (Packet header is  TxTime=+0.0ns Size=320 Direction=DOWN NumForwards=0 Error=False UniqueID=2 Timestamp=+0.0ns SenderAddr=01 DestAddr=05 NextHop=0255
) Payload (size=320)
r 31045777776 /NodeList/4/DeviceList/0/$ns3::AquaSimNetDevice/Phy/Rx ns3::AquaSimHeader (Packet header is  TxTime=+10000000.0ns Size=320 Direction=UP NumForwards=4 Error=False UniqueID=2 Timestamp=+0.0ns SenderAddr=04 DestAddr=05 NextHop=0255
) ns3::MacHeader (Mac Header is: SA=04 DA=0255 DemuxPType=OTHER
) ns3::AquaSimHeader (Packet header is  TxTime=+10000000.0ns Size=320 Direction=UP NumForwards=3 Error=False UniqueID=2 Timestamp=+0.0ns SenderAddr=03 DestAddr=05 NextHop=0255
) ns3::AquaSimHeader (Packet header is  TxTime=+10000000.0ns Size=320 Direction=UP NumForwards=2 Error=False UniqueID=2 Timestamp=+0.0ns SenderAddr=02 DestAddr=05 NextHop=0255
) ns3::AquaSimHeader (Packet header is  TxTime=+10000000.0ns Size=320 Direction=UP NumForwards=1 Error=False UniqueID=2 Timestamp=+0.0ns SenderAddr=01 DestAddr=05 NextHop=0255
) ns3::AquaSimHeader (Packet header is  TxTime=+0.0ns Size=320 Direction=DOWN NumForwards=0 Error=False UniqueID=2 Timestamp=+0.0ns SenderAddr=01 DestAddr=05 NextHop=0255
) Payload (size=320)
t 43166666666 /NodeList/0/DeviceList/0/$ns3::AquaSimNetDevice/Phy/Tx ns3::AquaSimPacketStamp (PacketStamp: Pt(0.2818) Pr(0) TxRange(40) Freq(25) Noise(0) PacketStatus(INVALID)
) ns3::AquaSimHeader (Packet header is  TxTime=+273000000.0ns Size=320 Direction=DOWN NumForwards=1 Error=False UniqueID=4 Timestamp=+0.0ns SenderAddr=01 DestAddr=05 NextHop=0255
) ns3::MacHeader (Mac Header is: SA=01 DA=0255 DemuxPType=OTHER
) ns3::AquaSimHeader (Packet header is  TxTime=+0.0ns Size=320 Direction=DOWN NumForwards=0 Error=False UniqueID=4 Timestamp=+0.0ns SenderAddr=01 DestAddr=05 NextHop=0255
) Payload (size=320)
r 43691999999 /NodeList/1/DeviceList/0/$ns3::AquaSimNetDevice/Phy/Rx ns3::AquaSimHeader (Packet header is  TxTime=+10000000.0ns Size=320 Direction=UP NumForwards=1 Error=False UniqueID=4 Timestamp=+0.0ns SenderAddr=01 DestAddr=05 NextHop=0255
) ns3::MacHeader (Mac Header is: SA=01 DA=0255 DemuxPType=OTHER
) ns3::AquaSimHeader (Packet header is  TxTime=+0.0ns Size=320 Direction=DOWN NumForwards=0 Error=False UniqueID=4 Timestamp=+0.0ns SenderAddr=01 DestAddr=05 NextHop=0255
) Payload (size=320)
t 43691999999 /NodeList/1/DeviceList/0/$ns3::AquaSimNetDevice/Phy/Tx ns3::AquaSimPacketStamp (PacketStamp: Pt(0.2818) Pr(0) TxRange(40) Freq(25) Noise(0) PacketStatus(INVALID)
) ns3::AquaSimHeader (Packet header is  TxTime=+288999999.0ns Size=320 Direction=DOWN NumForwards=2 Error=False UniqueID=4 Timestamp=+0.0ns SenderAddr=02 DestAddr=05 NextHop=0255
) ns3::MacHeader (Mac Header is: SA=02 DA=0255 DemuxPType=OTHER
) ns3::AquaSimHeader (Packet header is  TxTime=+10000000.0ns Size=320 Direction=UP NumForwards=1 Error=False UniqueID=4 Timestamp=+0.0ns SenderAddr=01 DestAddr=05 NextHop=0255
) ns3::AquaSimHeader (Packet header is  TxTime=+0.0ns Size=320 Direction=DOWN NumForwards=0 Error=False UniqueID=4 Timestamp=+0.0ns SenderAddr=01 DestAddr=05 NextHop=0255
) Payload (size=320)
r 43705333332 /NodeList/2/DeviceList/0/$ns3::AquaSimNetDevice/Phy/Rx ns3::AquaSimHeader (Packet header is  TxTime=+10000000.0ns Size=320 Direction=UP NumForwards=1 Error=False UniqueID=4 Timestamp=+0.0ns SenderAddr=01 DestAddr=05 NextHop=0255
) ns3::MacHeader (Mac Header is: SA=01 DA=0255 DemuxPType=OTHER
) ns3::AquaSimHeader (Packet header is  TxTime=+0.0ns Size=320 Direction=DOWN NumForwards=0 Error=False UniqueID=4 Timestamp=+0.0ns SenderAddr=01 DestAddr=05 NextHop=0255
) Payload (size=320)
r 44217333332 /NodeList/0/DeviceList/0/$ns3::AquaSimNetDevice/Phy/Rx ns3::AquaSimHeader (Packet header is  TxTime=+10000000.0ns Size=320 Direction=UP NumForwards=2 Error=False UniqueID=4 Timestamp=+0.0ns SenderAddr=02 DestAddr=05 NextHop=0255
) ns3::MacHeader (Mac Header is: SA=02 DA=0255 DemuxPType=OTHER
) ns3::AquaSimHeader (Packet header is  TxTime=+10000000.0ns Size=320 Direction=UP NumForwards=1 Error=False UniqueID=4 Timestamp=+0.0ns SenderAddr=01 DestAddr=05 NextHop=0255
) ns3::AquaSimHeader (Packet header is  TxTime=+0.0ns Size=320 Direction=DOWN NumForwards=0 Error=False UniqueID=4 Timestamp=+0.0ns SenderAddr=01 DestAddr=05 NextHop=0255
) Payload (size=320)
r 44217333332 /NodeList/2/DeviceList/0/$ns3::AquaSimNetDevice/Phy/Rx ns3::AquaSimHeader (Packet header is  TxTime=+10000000.0ns Size=320 Direction=UP NumForwards=2 Error=False UniqueID=4 Timestamp=+0.0ns SenderAddr=02 DestAddr=05 NextHop=0255
) ns3::MacHeader (Mac Header is: SA=02 DA=0255 DemuxPType=OTHER
) ns3::AquaSimHeader (Packet header is  TxTime=+10000000.0ns Size=320 Direction=UP NumForwards=1 Error=False UniqueID=4 Timestamp=+0.0ns SenderAddr=01 DestAddr=05 NextHop=0255
) ns3::AquaSimHeader (Packet header is  TxTime=+0.0ns Size=320 Direction=DOWN NumForwards=0 Error=False UniqueID=4 Timestamp=+0.0ns SenderAddr=01 DestAddr=05 NextHop=0255
) Payload (size=320)
t 44217333332 /NodeList/2/DeviceList/0/$ns3::AquaSimNetDevice/Phy/Tx ns3::AquaSimPacketStamp (PacketStamp: Pt(0.2818) Pr(0) TxRange(40) Freq(25) Noise(0) PacketStatus(INVALID)
) ns3::AquaSimHeader (Packet header is  TxTime=+305999999.0ns Size=320 Direction=DOWN NumForwards=3 Error=False UniqueID=4 Timestamp=+0.0ns SenderAddr=03 DestAddr=05 NextHop=0255
) ns3::MacHeader (Mac Header is: SA=03 DA=0255 DemuxPType=OTHER
) ns3::AquaSimHeader (Packet header is  TxTime=+10000000.0ns Size=320 Direction=UP NumForwards=2 Error=False UniqueID=4 Timestamp=+0.0ns SenderAddr=02 DestAddr=05 NextHop=0255
) ns3::AquaSimHeader (Packet header is  TxTime=+10000000.0ns Size=320 Direction=UP NumForwards=1 Error=False UniqueID=4 Timestamp=+0.0ns SenderAddr=01 DestAddr=05 NextHop=0255
) ns3::AquaSimHeader (Packet header is  TxTime=+0.0ns Size=320 Direction=DOWN NumForwards=0 Error=False UniqueID=4 Timestamp=+0.0ns SenderAddr=01 DestAddr=05 NextHop=0255
) Payload (size=320)
r 44230666665 /NodeList/3/DeviceList/0/$ns3::AquaSimNetDevice/Phy/Rx ns3::AquaSimHeader (Packet header is  TxTime=+10000000.0ns Size=320 Direction=UP NumForwards=2 Error=False UniqueID=4 Timestamp=+0.0ns SenderAddr=02 DestAddr=05 NextHop=0255
) ns3::MacHeader (Mac Header is: SA=02 DA=0255 DemuxPType=OTHER
) ns3::AquaSimHeader (Packet header is  TxTime=+10000000.0ns Size=320 Direction=UP NumForwards=1 Error=False UniqueID=4 Timestamp=+0.0ns SenderAddr=01 DestAddr=05 NextHop=0255
) ns3::AquaSimHeader (Packet header is  TxTime=+0.0ns Size=320 Direction=DOWN NumForwards=0 Error=False UniqueID=4 Timestamp=+0.0ns SenderAddr=01 DestAddr=05 NextHop=0255
) Payload (size=320)
r 44742666665 /NodeList/1/DeviceList/0/$ns3::AquaSimNetDevice/Phy/Rx ns3::AquaSimHeader (Packet header is  TxTime=+10000000.0ns Size=320 Direction=UP NumForwards=3 Error=False UniqueID=4 Timestamp=+0.0ns SenderAddr=03 DestAddr=05 NextHop=0255
) ns3::MacHeader (Mac Header is: SA=03 DA=0255 DemuxPType=OTHER